<?xml version="1.0" encoding="UTF-8"?>

<!-- generated on 2025-02-09 04:56:39 by Eclipse SUMO sumo Version 1.21.0
<sumoConfiguration xmlns:xsi="http://www.w3.org/2001/XMLSchema-instance" xsi:noNamespaceSchemaLocation="http://sumo.dlr.de/xsd/sumoConfiguration.xsd">

    <input>
        <net-file value="/home/julesbompard/Documents/Projets/sumo-experiments/src/sumo_experiments/preset_networks/bologna/acosta/acosta_buslanes.net.xml"/>
        <route-files value="/home/julesbompard/Documents/Projets/sumo-experiments/src/sumo_experiments/preset_networks/bologna/acosta/acosta_18113.rou.xml,/home/julesbompard/Documents/Projets/sumo-experiments/src/sumo_experiments/preset_networks/bologna/acosta/acosta_busses.rou.xml"/>
        <additional-files value="/home/julesbompard/Documents/Projets/sumo-experiments/src/sumo_experiments/preset_networks/bologna/acosta/acosta_tls.add.xml,/home/julesbompard/Documents/Projets/sumo-experiments/src/sumo_experiments/preset_networks/bologna/acosta/acosta_vtypes.add.xml,/home/julesbompard/Documents/Projets/sumo-experiments/src/sumo_experiments/preset_networks/bologna/acosta/acosta_detectors.add.xml,/home/julesbompard/Documents/Projets/sumo-experiments/src/sumo_experiments/preset_networks/bologna/acosta/acosta_bus_stops.add.xml"/>
    </input>

    <output>
        <tripinfo-output value="/home/julesbompard/Documents/Projets/sumo-experiments/src/sumo_experiments/preset_networks/bologna/acosta/tripinfos.xml"/>
    </output>

    <processing>
        <time-to-teleport value="-1"/>
    </processing>

    <report>
        <log value="/home/julesbompard/Documents/Projets/sumo-experiments/src/sumo_experiments/preset_networks/bologna/acosta/sumo_log.txt"/>
        <no-step-log value="true"/>
    </report>

    <traci_server>
        <remote-port value="49105"/>
    </traci_server>

    <gui_only>
        <gui-settings-file value="/home/julesbompard/Documents/Projets/sumo-experiments/src/sumo_experiments/preset_networks/bologna/acosta/settings.gui.xml"/>
    </gui_only>

</sumoConfiguration>
-->

<detector xmlns:xsi="http://www.w3.org/2001/XMLSchema-instance" xsi:noNamespaceSchemaLocation="http://sumo.dlr.de/xsd/det_e2_file.xsd">
   <interval begin="0.00" end="4800.00" id="34_1" sampledSeconds="5288.62" nVehEntered="319" nVehLeft="319" nVehSeen="319" meanSpeed="1.50" meanTimeLoss="14.61" meanOccupancy="23.08" maxOccupancy="82.38" meanMaxJamLengthInVehicles="0.85" meanMaxJamLengthInMeters="4.39" maxJamLengthInVehicles="4" maxJamLengthInMeters="20.00" jamLengthInVehiclesSum="4095" jamLengthInMetersSum="21085.11" meanHaltingDuration="35.70" maxHaltingDuration="74.00" haltingDurationSum="4213.00" meanIntervalHaltingDuration="35.70" maxIntervalHaltingDuration="74.00" intervalHaltingDurationSum="4213.00" startedHalts="118.00" meanVehicleNumber="1.17" maxVehicleNumber="4" />
   <interval begin="0.00" end="4800.00" id="34_2" sampledSeconds="6013.60" nVehEntered="380" nVehLeft="380" nVehSeen="380" meanSpeed="1.57" meanTimeLoss="13.49" meanOccupancy="25.57" maxOccupancy="77.68" meanMaxJamLengthInVehicles="0.89" meanMaxJamLengthInMeters="4.51" maxJamLengthInVehicles="4" maxJamLengthInMeters="20.00" jamLengthInVehiclesSum="4262" jamLengthInMetersSum="21628.61" meanHaltingDuration="39.40" maxHaltingDuration="74.00" haltingDurationSum="4373.00" meanIntervalHaltingDuration="39.40" maxIntervalHaltingDuration="74.00" intervalHaltingDurationSum="4373.00" startedHalts="111.00" meanVehicleNumber="1.33" maxVehicleNumber="4" />
   <interval begin="0.00" end="4800.00" id="34_3" sampledSeconds="4289.47" nVehEntered="668" nVehLeft="668" nVehSeen="668" meanSpeed="3.59" meanTimeLoss="4.64" meanOccupancy="20.11" maxOccupancy="85.00" meanMaxJamLengthInVehicles="0.51" meanMaxJamLengthInMeters="2.82" maxJamLengthInVehicles="4" maxJamLengthInMeters="19.38" jamLengthInVehiclesSum="2428" jamLengthInMetersSum="13547.47" meanHaltingDuration="23.54" maxHaltingDuration="88.00" haltingDurationSum="2495.00" meanIntervalHaltingDuration="23.54" maxIntervalHaltingDuration="88.00" intervalHaltingDurationSum="2495.00" startedHalts="123.00" meanVehicleNumber="1.03" maxVehicleNumber="4" />
   <interval begin="0.00" end="4800.00" id="34_4" sampledSeconds="3189.57" nVehEntered="565" nVehLeft="565" nVehSeen="565" meanSpeed="3.91" meanTimeLoss="4.04" meanOccupancy="14.12" maxOccupancy="76.88" meanMaxJamLengthInVehicles="0.38" meanMaxJamLengthInMeters="1.95" maxJamLengthInVehicles="4" maxJamLengthInMeters="19.38" jamLengthInVehiclesSum="1812" jamLengthInMetersSum="9377.60" meanHaltingDuration="21.47" maxHaltingDuration="92.00" haltingDurationSum="1825.00" meanIntervalHaltingDuration="21.47" maxIntervalHaltingDuration="92.00" intervalHaltingDurationSum="1825.00" startedHalts="98.00" meanVehicleNumber="0.77" maxVehicleNumber="4" />
   <interval begin="0.00" end="4800.00" id="34_5" sampledSeconds="1846.64" nVehEntered="231" nVehLeft="231" nVehSeen="231" meanSpeed="2.85" meanTimeLoss="6.42" meanOccupancy="8.39" maxOccupancy="79.38" meanMaxJamLengthInVehicles="0.24" meanMaxJamLengthInMeters="1.30" maxJamLengthInVehicles="4" maxJamLengthInMeters="19.38" jamLengthInVehiclesSum="1157" jamLengthInMetersSum="6229.99" meanHaltingDuration="17.30" maxHaltingDuration="76.00" haltingDurationSum="1228.00" meanIntervalHaltingDuration="17.30" maxIntervalHaltingDuration="76.00" intervalHaltingDurationSum="1228.00" startedHalts="71.00" meanVehicleNumber="0.43" maxVehicleNumber="4" />
   <interval begin="0.00" end="4800.00" id="34_6" sampledSeconds="917.95" nVehEntered="380" nVehLeft="380" nVehSeen="380" meanSpeed="10.28" meanTimeLoss="0.60" meanOccupancy="3.74" maxOccupancy="72.50" meanMaxJamLengthInVehicles="0.01" meanMaxJamLengthInMeters="0.06" maxJamLengthInVehicles="3" maxJamLengthInMeters="18.25" jamLengthInVehiclesSum="60" jamLengthInMetersSum="308.45" meanHaltingDuration="12.40" maxHaltingDuration="18.00" haltingDurationSum="62.00" meanIntervalHaltingDuration="12.40" maxIntervalHaltingDuration="18.00" intervalHaltingDurationSum="62.00" startedHalts="6.00" meanVehicleNumber="0.27" maxVehicleNumber="3" />
   <interval begin="0.00" end="4800.00" id="34_7" sampledSeconds="1824.35" nVehEntered="830" nVehLeft="830" nVehSeen="830" meanSpeed="11.15" meanTimeLoss="0.38" meanOccupancy="7.49" maxOccupancy="60.00" meanMaxJamLengthInVehicles="0.00" meanMaxJamLengthInMeters="0.00" maxJamLengthInVehicles="0" maxJamLengthInMeters="0.00" jamLengthInVehiclesSum="0" jamLengthInMetersSum="0.00" meanHaltingDuration="0.00" maxHaltingDuration="0.00" haltingDurationSum="0.00" meanIntervalHaltingDuration="0.00" maxIntervalHaltingDuration="0.00" intervalHaltingDurationSum="0.00" startedHalts="0.00" meanVehicleNumber="0.54" maxVehicleNumber="3" />
   <interval begin="0.00" end="4800.00" id="34_8" sampledSeconds="956.22" nVehEntered="541" nVehLeft="541" nVehSeen="541" meanSpeed="12.63" meanTimeLoss="0.16" meanOccupancy="3.94" maxOccupancy="42.41" meanMaxJamLengthInVehicles="0.00" meanMaxJamLengthInMeters="0.00" maxJamLengthInVehicles="0" maxJamLengthInMeters="0.00" jamLengthInVehiclesSum="0" jamLengthInMetersSum="0.00" meanHaltingDuration="0.00" maxHaltingDuration="0.00" haltingDurationSum="0.00" meanIntervalHaltingDuration="0.00" maxIntervalHaltingDuration="0.00" intervalHaltingDurationSum="0.00" startedHalts="0.00" meanVehicleNumber="0.30" maxVehicleNumber="2" />
   <interval begin="0.00" end="4800.00" id="34_9" sampledSeconds="53.33" nVehEntered="76" nVehLeft="76" nVehSeen="76" meanSpeed="13.73" meanTimeLoss="0.06" meanOccupancy="0.07" maxOccupancy="25.00" meanMaxJamLengthInVehicles="0.00" meanMaxJamLengthInMeters="0.00" maxJamLengthInVehicles="0" maxJamLengthInMeters="0.00" jamLengthInVehiclesSum="0" jamLengthInMetersSum="0.00" meanHaltingDuration="0.00" maxHaltingDuration="0.00" haltingDurationSum="0.00" meanIntervalHaltingDuration="0.00" maxIntervalHaltingDuration="0.00" intervalHaltingDurationSum="0.00" startedHalts="0.00" meanVehicleNumber="0.02" maxVehicleNumber="1" />
   <interval begin="0.00" end="4800.00" id="34_10" sampledSeconds="5287.83" nVehEntered="319" nVehLeft="319" nVehSeen="319" meanSpeed="1.50" meanTimeLoss="14.61" meanOccupancy="23.10" maxOccupancy="82.46" meanMaxJamLengthInVehicles="0.85" meanMaxJamLengthInMeters="4.39" maxJamLengthInVehicles="4" maxJamLengthInMeters="19.98" jamLengthInVehiclesSum="4095" jamLengthInMetersSum="21085.09" meanHaltingDuration="35.70" maxHaltingDuration="74.00" haltingDurationSum="4213.00" meanIntervalHaltingDuration="35.70" maxIntervalHaltingDuration="74.00" intervalHaltingDurationSum="4213.00" startedHalts="118.00" meanVehicleNumber="1.17" maxVehicleNumber="4" />
   <interval begin="0.00" end="4800.00" id="34_11" sampledSeconds="5525.19" nVehEntered="319" nVehLeft="319" nVehSeen="319" meanSpeed="10.67" meanTimeLoss="4.00" meanOccupancy="2.97" maxOccupancy="23.87" meanMaxJamLengthInVehicles="0.16" meanMaxJamLengthInMeters="0.85" maxJamLengthInVehicles="6" maxJamLengthInMeters="35.09" jamLengthInVehiclesSum="762" jamLengthInMetersSum="4082.18" meanHaltingDuration="15.13" maxHaltingDuration="51.00" haltingDurationSum="787.00" meanIntervalHaltingDuration="15.13" maxIntervalHaltingDuration="51.00" intervalHaltingDurationSum="787.00" startedHalts="66.00" meanVehicleNumber="1.22" maxVehicleNumber="9" />
   <interval begin="0.00" end="4800.00" id="34_12" sampledSeconds="13853.04" nVehEntered="380" nVehLeft="380" nVehSeen="380" meanSpeed="3.63" meanTimeLoss="26.30" meanOccupancy="10.75" maxOccupancy="66.20" meanMaxJamLengthInVehicles="1.60" meanMaxJamLengthInMeters="9.62" maxJamLengthInVehicles="16" maxJamLengthInMeters="99.88" jamLengthInVehiclesSum="7697" jamLengthInMetersSum="46182.38" meanHaltingDuration="32.80" maxHaltingDuration="74.00" haltingDurationSum="7939.00" meanIntervalHaltingDuration="32.80" maxIntervalHaltingDuration="74.00" intervalHaltingDurationSum="7939.00" startedHalts="242.00" meanVehicleNumber="2.96" maxVehicleNumber="18" />
   <interval begin="0.00" end="4800.00" id="34_13" sampledSeconds="8712.47" nVehEntered="845" nVehLeft="845" nVehSeen="845" meanSpeed="7.07" meanTimeLoss="4.85" meanOccupancy="11.06" maxOccupancy="49.76" meanMaxJamLengthInVehicles="0.55" meanMaxJamLengthInMeters="3.31" maxJamLengthInVehicles="7" maxJamLengthInMeters="43.51" jamLengthInVehiclesSum="2646" jamLengthInMetersSum="15903.25" meanHaltingDuration="22.46" maxHaltingDuration="88.00" haltingDurationSum="2718.00" meanIntervalHaltingDuration="22.46" maxIntervalHaltingDuration="88.00" intervalHaltingDurationSum="2718.00" startedHalts="150.00" meanVehicleNumber="1.96" maxVehicleNumber="8" />
   <interval begin="0.00" end="4800.00" id="34_14" sampledSeconds="5658.08" nVehEntered="745" nVehLeft="745" nVehSeen="745" meanSpeed="7.24" meanTimeLoss="3.62" meanOccupancy="6.89" maxOccupancy="42.83" meanMaxJamLengthInVehicles="0.41" meanMaxJamLengthInMeters="2.27" maxJamLengthInVehicles="7" maxJamLengthInMeters="42.53" jamLengthInVehiclesSum="1957" jamLengthInMetersSum="10919.85" meanHaltingDuration="20.59" maxHaltingDuration="92.00" haltingDurationSum="1977.00" meanIntervalHaltingDuration="20.59" maxIntervalHaltingDuration="92.00" intervalHaltingDurationSum="1977.00" startedHalts="115.00" meanVehicleNumber="1.28" maxVehicleNumber="7" />
   <interval begin="0.00" end="4800.00" id="34_15" sampledSeconds="2346.75" nVehEntered="231" nVehLeft="231" nVehSeen="231" meanSpeed="4.20" meanTimeLoss="7.26" meanOccupancy="2.76" maxOccupancy="37.79" meanMaxJamLengthInVehicles="0.27" meanMaxJamLengthInMeters="1.51" maxJamLengthInVehicles="6" maxJamLengthInMeters="37.52" jamLengthInVehiclesSum="1280" jamLengthInMetersSum="7238.48" meanHaltingDuration="17.00" maxHaltingDuration="76.00" haltingDurationSum="1360.00" meanIntervalHaltingDuration="17.00" maxIntervalHaltingDuration="76.00" intervalHaltingDurationSum="1360.00" startedHalts="80.00" meanVehicleNumber="0.51" maxVehicleNumber="6" />
   <interval begin="0.00" end="4800.00" id="27_1" sampledSeconds="8962.22" nVehEntered="580" nVehLeft="580" nVehSeen="580" meanSpeed="1.55" meanTimeLoss="13.32" meanOccupancy="37.98" maxOccupancy="82.59" meanMaxJamLengthInVehicles="1.33" meanMaxJamLengthInMeters="6.74" maxJamLengthInVehicles="4" maxJamLengthInMeters="20.00" jamLengthInVehiclesSum="6364" jamLengthInMetersSum="32356.30" meanHaltingDuration="34.46" maxHaltingDuration="117.00" haltingDurationSum="6547.00" meanIntervalHaltingDuration="34.46" maxIntervalHaltingDuration="117.00" intervalHaltingDurationSum="6547.00" startedHalts="194.00" meanVehicleNumber="1.99" maxVehicleNumber="4" />
   <interval begin="0.00" end="4800.00" id="27_2" sampledSeconds="7189.28" nVehEntered="679" nVehLeft="679" nVehSeen="679" meanSpeed="2.19" meanTimeLoss="8.92" meanOccupancy="30.22" maxOccupancy="80.08" meanMaxJamLengthInVehicles="1.10" meanMaxJamLengthInMeters="5.52" maxJamLengthInVehicles="4" maxJamLengthInMeters="20.00" jamLengthInVehiclesSum="5275" jamLengthInMetersSum="26491.03" meanHaltingDuration="40.08" maxHaltingDuration="121.00" haltingDurationSum="5371.00" meanIntervalHaltingDuration="40.08" maxIntervalHaltingDuration="121.00" intervalHaltingDurationSum="5371.00" startedHalts="156.00" meanVehicleNumber="1.63" maxVehicleNumber="4" />
   <interval begin="0.00" end="4800.00" id="27_3" sampledSeconds="5948.69" nVehEntered="360" nVehLeft="360" nVehSeen="360" meanSpeed="1.44" meanTimeLoss="14.84" meanOccupancy="24.80" maxOccupancy="80.08" meanMaxJamLengthInVehicles="0.98" meanMaxJamLengthInMeters="4.89" maxJamLengthInVehicles="4" maxJamLengthInMeters="20.00" jamLengthInVehiclesSum="4707" jamLengthInMetersSum="23448.70" meanHaltingDuration="38.06" maxHaltingDuration="113.00" haltingDurationSum="4834.00" meanIntervalHaltingDuration="38.06" maxIntervalHaltingDuration="113.00" intervalHaltingDurationSum="4834.00" startedHalts="127.00" meanVehicleNumber="1.31" maxVehicleNumber="4" />
   <interval begin="0.00" end="4800.00" id="27_4" sampledSeconds="0.00" nVehEntered="0" nVehLeft="0" nVehSeen="0" meanSpeed="-1.00" meanTimeLoss="-1.00" meanOccupancy="0.00" maxOccupancy="0.00" meanMaxJamLengthInVehicles="0.00" meanMaxJamLengthInMeters="0.00" maxJamLengthInVehicles="0" maxJamLengthInMeters="0.00" jamLengthInVehiclesSum="0" jamLengthInMetersSum="0.00" meanHaltingDuration="0.00" maxHaltingDuration="0.00" haltingDurationSum="0.00" meanIntervalHaltingDuration="0.00" maxIntervalHaltingDuration="0.00" intervalHaltingDurationSum="0.00" startedHalts="0.00" meanVehicleNumber="0.00" maxVehicleNumber="0" />
   <interval begin="0.00" end="4800.00" id="27_5" sampledSeconds="837.76" nVehEntered="24" nVehLeft="24" nVehSeen="24" meanSpeed="0.64" meanTimeLoss="33.30" meanOccupancy="16.80" maxOccupancy="100.00" meanMaxJamLengthInVehicles="0.15" meanMaxJamLengthInMeters="1.61" maxJamLengthInVehicles="1" maxJamLengthInMeters="10.38" jamLengthInVehiclesSum="743" jamLengthInMetersSum="7710.91" meanHaltingDuration="58.15" maxHaltingDuration="108.00" haltingDurationSum="756.00" meanIntervalHaltingDuration="58.15" maxIntervalHaltingDuration="108.00" intervalHaltingDurationSum="756.00" startedHalts="13.00" meanVehicleNumber="0.18" maxVehicleNumber="2" />
   <interval begin="0.00" end="4800.00" id="27_6" sampledSeconds="0.00" nVehEntered="0" nVehLeft="0" nVehSeen="0" meanSpeed="-1.00" meanTimeLoss="-1.00" meanOccupancy="0.00" maxOccupancy="0.00" meanMaxJamLengthInVehicles="0.00" meanMaxJamLengthInMeters="0.00" maxJamLengthInVehicles="0" maxJamLengthInMeters="0.00" jamLengthInVehiclesSum="0" jamLengthInMetersSum="0.00" meanHaltingDuration="0.00" maxHaltingDuration="0.00" haltingDurationSum="0.00" meanIntervalHaltingDuration="0.00" maxIntervalHaltingDuration="0.00" intervalHaltingDurationSum="0.00" startedHalts="0.00" meanVehicleNumber="0.00" maxVehicleNumber="0" />
   <interval begin="0.00" end="4800.00" id="27_7" sampledSeconds="5671.21" nVehEntered="574" nVehLeft="574" nVehSeen="574" meanSpeed="2.48" meanTimeLoss="8.06" meanOccupancy="25.45" maxOccupancy="80.49" meanMaxJamLengthInVehicles="0.84" meanMaxJamLengthInMeters="4.46" maxJamLengthInVehicles="4" maxJamLengthInMeters="19.10" jamLengthInVehiclesSum="4028" jamLengthInMetersSum="21429.69" meanHaltingDuration="40.48" maxHaltingDuration="100.00" haltingDurationSum="4129.00" meanIntervalHaltingDuration="40.48" maxIntervalHaltingDuration="100.00" intervalHaltingDurationSum="4129.00" startedHalts="104.00" meanVehicleNumber="1.30" maxVehicleNumber="4" />
   <interval begin="0.00" end="4800.00" id="27_8" sampledSeconds="5304.79" nVehEntered="510" nVehLeft="510" nVehSeen="510" meanSpeed="2.34" meanTimeLoss="8.66" meanOccupancy="23.28" maxOccupancy="77.98" meanMaxJamLengthInVehicles="0.80" meanMaxJamLengthInMeters="4.20" maxJamLengthInVehicles="4" maxJamLengthInMeters="19.10" jamLengthInVehiclesSum="3849" jamLengthInMetersSum="20147.60" meanHaltingDuration="41.08" maxHaltingDuration="100.00" haltingDurationSum="3944.00" meanIntervalHaltingDuration="41.08" maxIntervalHaltingDuration="100.00" intervalHaltingDurationSum="3944.00" startedHalts="97.00" meanVehicleNumber="1.21" maxVehicleNumber="4" />
   <interval begin="0.00" end="4800.00" id="27_9" sampledSeconds="1603.89" nVehEntered="58" nVehLeft="58" nVehSeen="58" meanSpeed="0.87" meanTimeLoss="25.92" meanOccupancy="7.50" maxOccupancy="75.00" meanMaxJamLengthInVehicles="0.28" meanMaxJamLengthInMeters="1.39" maxJamLengthInVehicles="4" maxJamLengthInMeters="19.10" jamLengthInVehiclesSum="1344" jamLengthInMetersSum="6663.67" meanHaltingDuration="35.38" maxHaltingDuration="111.00" haltingDurationSum="1380.00" meanIntervalHaltingDuration="35.38" maxIntervalHaltingDuration="111.00" intervalHaltingDurationSum="1380.00" startedHalts="40.00" meanVehicleNumber="0.35" maxVehicleNumber="4" />
   <interval begin="0.00" end="4800.00" id="27_10" sampledSeconds="7756.21" nVehEntered="266" nVehLeft="266" nVehSeen="266" meanSpeed="0.85" meanTimeLoss="27.04" meanOccupancy="34.54" maxOccupancy="79.99" meanMaxJamLengthInVehicles="1.38" meanMaxJamLengthInMeters="7.20" maxJamLengthInVehicles="4" maxJamLengthInMeters="20.01" jamLengthInVehiclesSum="6607" jamLengthInMetersSum="34557.18" meanHaltingDuration="56.52" maxHaltingDuration="120.00" haltingDurationSum="6726.00" meanIntervalHaltingDuration="56.52" maxIntervalHaltingDuration="120.00" intervalHaltingDurationSum="6726.00" startedHalts="119.00" meanVehicleNumber="1.67" maxVehicleNumber="4" />
   <interval begin="0.00" end="4800.00" id="27_11" sampledSeconds="2525.39" nVehEntered="57" nVehLeft="57" nVehSeen="57" meanSpeed="0.64" meanTimeLoss="42.24" meanOccupancy="21.75" maxOccupancy="84.96" meanMaxJamLengthInVehicles="0.46" meanMaxJamLengthInMeters="4.21" maxJamLengthInVehicles="3" maxJamLengthInMeters="19.01" jamLengthInVehiclesSum="2214" jamLengthInMetersSum="20216.54" meanHaltingDuration="52.49" maxHaltingDuration="125.00" haltingDurationSum="2257.00" meanIntervalHaltingDuration="52.49" maxIntervalHaltingDuration="125.00" intervalHaltingDurationSum="2257.00" startedHalts="43.00" meanVehicleNumber="0.54" maxVehicleNumber="3" />
   <interval begin="0.00" end="4800.00" id="27_12" sampledSeconds="7758.00" nVehEntered="212" nVehLeft="212" nVehSeen="212" meanSpeed="0.68" meanTimeLoss="34.66" meanOccupancy="34.70" maxOccupancy="79.28" meanMaxJamLengthInVehicles="1.37" meanMaxJamLengthInMeters="7.15" maxJamLengthInVehicles="4" maxJamLengthInMeters="20.01" jamLengthInVehiclesSum="6583" jamLengthInMetersSum="34302.90" meanHaltingDuration="39.55" maxHaltingDuration="118.00" haltingDurationSum="6724.00" meanIntervalHaltingDuration="39.55" maxIntervalHaltingDuration="118.00" intervalHaltingDurationSum="6724.00" startedHalts="181.00" meanVehicleNumber="1.66" maxVehicleNumber="4" />
   <interval begin="0.00" end="4800.00" id="27_13" sampledSeconds="3562.17" nVehEntered="814" nVehLeft="814" nVehSeen="814" meanSpeed="5.36" meanTimeLoss="2.62" meanOccupancy="14.72" maxOccupancy="79.95" meanMaxJamLengthInVehicles="0.30" meanMaxJamLengthInMeters="1.43" maxJamLengthInVehicles="4" maxJamLengthInMeters="20.00" jamLengthInVehiclesSum="1460" jamLengthInMetersSum="6879.51" meanHaltingDuration="20.07" maxHaltingDuration="69.00" haltingDurationSum="1325.00" meanIntervalHaltingDuration="20.07" maxIntervalHaltingDuration="69.00" intervalHaltingDurationSum="1325.00" startedHalts="90.00" meanVehicleNumber="0.90" maxVehicleNumber="4" />
   <interval begin="0.00" end="4800.00" id="27_14" sampledSeconds="2180.58" nVehEntered="817" nVehLeft="817" nVehSeen="817" meanSpeed="8.21" meanTimeLoss="1.13" meanOccupancy="8.66" maxOccupancy="81.26" meanMaxJamLengthInVehicles="0.12" meanMaxJamLengthInMeters="0.53" maxJamLengthInVehicles="4" maxJamLengthInMeters="20.00" jamLengthInVehiclesSum="595" jamLengthInMetersSum="2567.02" meanHaltingDuration="18.69" maxHaltingDuration="66.00" haltingDurationSum="542.00" meanIntervalHaltingDuration="18.69" maxIntervalHaltingDuration="66.00" intervalHaltingDurationSum="542.00" startedHalts="41.00" meanVehicleNumber="0.60" maxVehicleNumber="4" />
   <interval begin="0.00" end="4800.00" id="27_15" sampledSeconds="692.05" nVehEntered="114" nVehLeft="114" nVehSeen="114" meanSpeed="1.79" meanTimeLoss="5.31" meanOccupancy="2.33" maxOccupancy="72.32" meanMaxJamLengthInVehicles="0.10" meanMaxJamLengthInMeters="0.44" maxJamLengthInVehicles="3" maxJamLengthInMeters="15.55" jamLengthInVehiclesSum="503" jamLengthInMetersSum="2093.12" meanHaltingDuration="21.86" maxHaltingDuration="55.00" haltingDurationSum="459.00" meanIntervalHaltingDuration="21.86" maxIntervalHaltingDuration="55.00" intervalHaltingDurationSum="459.00" startedHalts="26.00" meanVehicleNumber="0.16" maxVehicleNumber="3" />
   <interval begin="0.00" end="4800.00" id="27_16" sampledSeconds="1111.56" nVehEntered="493" nVehLeft="493" nVehSeen="493" meanSpeed="10.74" meanTimeLoss="0.46" meanOccupancy="4.51" maxOccupancy="60.00" meanMaxJamLengthInVehicles="0.00" meanMaxJamLengthInMeters="0.00" maxJamLengthInVehicles="0" maxJamLengthInMeters="0.00" jamLengthInVehiclesSum="0" jamLengthInMetersSum="0.00" meanHaltingDuration="0.00" maxHaltingDuration="0.00" haltingDurationSum="0.00" meanIntervalHaltingDuration="0.00" maxIntervalHaltingDuration="0.00" intervalHaltingDurationSum="0.00" startedHalts="0.00" meanVehicleNumber="0.34" maxVehicleNumber="3" />
   <interval begin="0.00" end="4800.00" id="27_17" sampledSeconds="1019.51" nVehEntered="445" nVehLeft="445" nVehSeen="445" meanSpeed="10.17" meanTimeLoss="0.63" meanOccupancy="4.08" maxOccupancy="49.00" meanMaxJamLengthInVehicles="0.00" meanMaxJamLengthInMeters="0.00" maxJamLengthInVehicles="0" maxJamLengthInMeters="0.00" jamLengthInVehiclesSum="0" jamLengthInMetersSum="0.00" meanHaltingDuration="0.00" maxHaltingDuration="0.00" haltingDurationSum="0.00" meanIntervalHaltingDuration="0.00" maxIntervalHaltingDuration="0.00" intervalHaltingDurationSum="0.00" startedHalts="0.00" meanVehicleNumber="0.30" maxVehicleNumber="3" />
   <interval begin="0.00" end="4800.00" id="27_18" sampledSeconds="488.76" nVehEntered="240" nVehLeft="240" nVehSeen="240" meanSpeed="11.41" meanTimeLoss="0.35" meanOccupancy="2.00" maxOccupancy="49.44" meanMaxJamLengthInVehicles="0.00" meanMaxJamLengthInMeters="0.00" maxJamLengthInVehicles="0" maxJamLengthInMeters="0.00" jamLengthInVehiclesSum="0" jamLengthInMetersSum="0.00" meanHaltingDuration="0.00" maxHaltingDuration="0.00" haltingDurationSum="0.00" meanIntervalHaltingDuration="0.00" maxIntervalHaltingDuration="0.00" intervalHaltingDurationSum="0.00" startedHalts="0.00" meanVehicleNumber="0.15" maxVehicleNumber="3" />
   <interval begin="0.00" end="4800.00" id="27_19" sampledSeconds="1252.22" nVehEntered="535" nVehLeft="535" nVehSeen="535" meanSpeed="10.77" meanTimeLoss="0.50" meanOccupancy="5.31" maxOccupancy="60.00" meanMaxJamLengthInVehicles="0.00" meanMaxJamLengthInMeters="0.00" maxJamLengthInVehicles="0" maxJamLengthInMeters="0.00" jamLengthInVehiclesSum="0" jamLengthInMetersSum="0.00" meanHaltingDuration="0.00" maxHaltingDuration="0.00" haltingDurationSum="0.00" meanIntervalHaltingDuration="0.00" maxIntervalHaltingDuration="0.00" intervalHaltingDurationSum="0.00" startedHalts="0.00" meanVehicleNumber="0.37" maxVehicleNumber="2" />
   <interval begin="0.00" end="4800.00" id="27_20" sampledSeconds="21009.93" nVehEntered="823" nVehLeft="823" nVehSeen="823" meanSpeed="2.63" meanTimeLoss="20.28" meanOccupancy="26.59" maxOccupancy="78.60" meanMaxJamLengthInVehicles="2.69" meanMaxJamLengthInMeters="16.44" maxJamLengthInVehicles="13" maxJamLengthInMeters="79.02" jamLengthInVehiclesSum="12964" jamLengthInMetersSum="79236.40" meanHaltingDuration="28.61" maxHaltingDuration="117.00" haltingDurationSum="13333.00" meanIntervalHaltingDuration="28.61" maxIntervalHaltingDuration="117.00" intervalHaltingDurationSum="13333.00" startedHalts="516.00" meanVehicleNumber="4.52" maxVehicleNumber="13" />
   <interval begin="0.00" end="4800.00" id="27_21" sampledSeconds="14860.17" nVehEntered="997" nVehLeft="997" nVehSeen="997" meanSpeed="3.87" meanTimeLoss="10.80" meanOccupancy="18.52" maxOccupancy="78.60" meanMaxJamLengthInVehicles="1.81" meanMaxJamLengthInMeters="10.80" maxJamLengthInVehicles="13" maxJamLengthInMeters="78.53" jamLengthInVehiclesSum="8674" jamLengthInMetersSum="51850.20" meanHaltingDuration="30.45" maxHaltingDuration="121.00" haltingDurationSum="8861.00" meanIntervalHaltingDuration="30.45" maxIntervalHaltingDuration="121.00" intervalHaltingDurationSum="8861.00" startedHalts="355.00" meanVehicleNumber="3.24" maxVehicleNumber="13" />
   <interval begin="0.00" end="4800.00" id="27_22" sampledSeconds="10332.48" nVehEntered="361" nVehLeft="361" nVehSeen="361" meanSpeed="1.64" meanTimeLoss="25.30" meanOccupancy="12.70" maxOccupancy="74.20" meanMaxJamLengthInVehicles="1.63" meanMaxJamLengthInMeters="9.67" maxJamLengthInVehicles="12" maxJamLengthInMeters="75.07" jamLengthInVehiclesSum="7810" jamLengthInMetersSum="46412.50" meanHaltingDuration="30.70" maxHaltingDuration="113.00" haltingDurationSum="8073.00" meanIntervalHaltingDuration="30.70" maxIntervalHaltingDuration="113.00" intervalHaltingDurationSum="8073.00" startedHalts="263.00" meanVehicleNumber="2.19" maxVehicleNumber="12" />
   <interval begin="0.00" end="4800.00" id="27_23" sampledSeconds="0.00" nVehEntered="0" nVehLeft="0" nVehSeen="0" meanSpeed="-1.00" meanTimeLoss="-1.00" meanOccupancy="0.00" maxOccupancy="0.00" meanMaxJamLengthInVehicles="0.00" meanMaxJamLengthInMeters="0.00" maxJamLengthInVehicles="0" maxJamLengthInMeters="0.00" jamLengthInVehiclesSum="0" jamLengthInMetersSum="0.00" meanHaltingDuration="0.00" maxHaltingDuration="0.00" haltingDurationSum="0.00" meanIntervalHaltingDuration="0.00" maxIntervalHaltingDuration="0.00" intervalHaltingDurationSum="0.00" startedHalts="0.00" meanVehicleNumber="0.00" maxVehicleNumber="0" />
   <interval begin="0.00" end="4800.00" id="27_24" sampledSeconds="837.76" nVehEntered="24" nVehLeft="24" nVehSeen="24" meanSpeed="0.64" meanTimeLoss="33.30" meanOccupancy="16.80" maxOccupancy="100.00" meanMaxJamLengthInVehicles="0.15" meanMaxJamLengthInMeters="1.61" maxJamLengthInVehicles="1" maxJamLengthInMeters="10.38" jamLengthInVehiclesSum="743" jamLengthInMetersSum="7710.91" meanHaltingDuration="58.15" maxHaltingDuration="108.00" haltingDurationSum="756.00" meanIntervalHaltingDuration="58.15" maxIntervalHaltingDuration="108.00" intervalHaltingDurationSum="756.00" startedHalts="13.00" meanVehicleNumber="0.18" maxVehicleNumber="2" />
   <interval begin="0.00" end="4800.00" id="27_25" sampledSeconds="0.00" nVehEntered="0" nVehLeft="0" nVehSeen="0" meanSpeed="-1.00" meanTimeLoss="-1.00" meanOccupancy="0.00" maxOccupancy="0.00" meanMaxJamLengthInVehicles="0.00" meanMaxJamLengthInMeters="0.00" maxJamLengthInVehicles="0" maxJamLengthInMeters="0.00" jamLengthInVehiclesSum="0" jamLengthInMetersSum="0.00" meanHaltingDuration="0.00" maxHaltingDuration="0.00" haltingDurationSum="0.00" meanIntervalHaltingDuration="0.00" maxIntervalHaltingDuration="0.00" intervalHaltingDurationSum="0.00" startedHalts="0.00" meanVehicleNumber="0.00" maxVehicleNumber="0" />
   <interval begin="0.00" end="4800.00" id="27_26" sampledSeconds="1362.12" nVehEntered="24" nVehLeft="24" nVehSeen="24" meanSpeed="2.96" meanTimeLoss="44.65" meanOccupancy="2.08" maxOccupancy="23.05" meanMaxJamLengthInVehicles="0.17" meanMaxJamLengthInMeters="2.27" maxJamLengthInVehicles="3" maxJamLengthInMeters="44.79" jamLengthInVehiclesSum="831" jamLengthInMetersSum="10885.31" meanHaltingDuration="23.46" maxHaltingDuration="85.00" haltingDurationSum="868.00" meanIntervalHaltingDuration="23.46" maxIntervalHaltingDuration="85.00" intervalHaltingDurationSum="868.00" startedHalts="37.00" meanVehicleNumber="0.29" maxVehicleNumber="3" />
   <interval begin="0.00" end="4800.00" id="27_27" sampledSeconds="0.00" nVehEntered="0" nVehLeft="0" nVehSeen="0" meanSpeed="-1.00" meanTimeLoss="-1.00" meanOccupancy="0.00" maxOccupancy="0.00" meanMaxJamLengthInVehicles="0.00" meanMaxJamLengthInMeters="0.00" maxJamLengthInVehicles="0" maxJamLengthInMeters="0.00" jamLengthInVehiclesSum="0" jamLengthInMetersSum="0.00" meanHaltingDuration="0.00" maxHaltingDuration="0.00" haltingDurationSum="0.00" meanIntervalHaltingDuration="0.00" maxIntervalHaltingDuration="0.00" intervalHaltingDurationSum="0.00" startedHalts="0.00" meanVehicleNumber="0.00" maxVehicleNumber="0" />
   <interval begin="0.00" end="4800.00" id="27_28" sampledSeconds="10387.79" nVehEntered="595" nVehLeft="595" nVehSeen="595" meanSpeed="3.38" meanTimeLoss="13.08" meanOccupancy="18.06" maxOccupancy="79.84" meanMaxJamLengthInVehicles="1.37" meanMaxJamLengthInMeters="8.19" maxJamLengthInVehicles="10" maxJamLengthInMeters="57.10" jamLengthInVehiclesSum="6556" jamLengthInMetersSum="39328.99" meanHaltingDuration="37.38" maxHaltingDuration="100.00" haltingDurationSum="6728.00" meanIntervalHaltingDuration="37.38" maxIntervalHaltingDuration="100.00" intervalHaltingDurationSum="6728.00" startedHalts="188.00" meanVehicleNumber="2.28" maxVehicleNumber="10" />